    -----------------------------------------------------------------------
          Psi4: An Open-Source Ab Initio Electronic Structure Package
                              Psi4 1.0rc312 Driver

                          Git: Rev {gtfock_casscf} 06b809c dirty

    J. M. Turney, A. C. Simmonett, R. M. Parrish, E. G. Hohenstein,
    F. A. Evangelista, J. T. Fermann, B. J. Mintz, L. A. Burns, J. J. Wilke,
    M. L. Abrams, N. J. Russ, M. L. Leininger, C. L. Janssen, E. T. Seidl,
    W. D. Allen, H. F. Schaefer, R. A. King, E. F. Valeev, C. D. Sherrill,
    and T. D. Crawford, WIREs Comput. Mol. Sci. 2, 556-565 (2012)
    (doi: 10.1002/wcms.93)

                         Additional Contributions by
    A. E. DePrince, U. Bozkaya, A. Yu. Sokolov, D. G. A. Smith, R. Di Remigio,
    R. M. Richard, J. F. Gonthier, H. R. McAlexander, M. Saitow, and
    B. P. Pritchard
    -----------------------------------------------------------------------


    Psi4 started on: Thu Sep  1 16:14:29 2016

    Process ID:  10908
    PSI4DATADIR: /home/kannon/src/psi4src/psi4/share
    Memory level set to 256.000 MB

  ==> Input File <==

--------------------------------------------------------------------------
import paralleldf
memory 1 gb

molecule H20 {
0 1
H
O 1 1.08
H 2 1.08 1 107.5
units bohr
}

set globals {
    basis        cc-pvdz
    df_basis_scf cc-pvdz-jkfit
    df_basis_mp2 cc-pvdz-ri
    scf_type     PARALLELDF
    reference    RHF
    PARALLELDF_BATCH_SIZE -1
    PARALLELDF_PROFILE     true
}
refenergy, refwfn = energy('scf', return_wfn=True)
compare_values(refenergy, -75.16902130716564, 6, "ParallelDF Success")
--------------------------------------------------------------------------
/home/kannon/src/paralleldf/paralleldf.so loaded.

  Memory set to 1000.000 MiB by Python script.

*** tstart() called on master
*** at Thu Sep  1 16:14:29 2016


         ---------------------------------------------------------
                                   SCF
            by Justin Turney, Rob Parrish, and Andy Simmonett
                              RHF Reference
                        1 Threads,   1000 MiB Core
         ---------------------------------------------------------

  ==> Geometry <==

    Molecular point group: c2v
    Full point group: C2v

    Geometry (in Bohr), charge = 0, multiplicity = 1:

       Center              X                  Y                   Z               Mass       
    ------------   -----------------  -----------------  -----------------  -----------------
           H          0.000000000000     0.870960172609    -0.567143968322     1.007825032070
           O          0.000000000000     0.000000000000     0.071470451910    15.994914619560
           H          0.000000000000    -0.870960172609    -0.567143968322     1.007825032070

  Running in c2v symmetry.

  Rotational constants: A =     82.46071  B =     39.37155  C =     26.64816 [cm^-1]
  Rotational constants: A = 2472109.81368  B = 1180329.34684  C = 798891.81817 [MHz]
  Nuclear repulsion =   15.388893878042619

  Charge       = 0
  Multiplicity = 1
  Electrons    = 10
  Nalpha       = 5
  Nbeta        = 5

  ==> Algorithm <==

  SCF Algorithm Type is PARALLELDF.
  DIIS enabled.
  MOM disabled.
  Fractional occupation disabled.
  Guess Type is SAD.
  Energy threshold   = 1.00e-06
  Density threshold  = 1.00e-06
  Integral threshold = 0.00e+00

  ==> Primary Basis <==

  Basis Set: CC-PVDZ
    Number of shells: 12
    Number of basis function: 24
    Number of Cartesian functions: 25
    Spherical Harmonics?: true
    Max angular momentum: 2

  ==> Pre-Iterations <==

   -------------------------------------------------------
    Irrep   Nso     Nmo     Nalpha   Nbeta   Ndocc  Nsocc
   -------------------------------------------------------
     A1        11      11       0       0       0       0
     A2         2       2       0       0       0       0
     B1         4       4       0       0       0       0
     B2         7       7       0       0       0       0
   -------------------------------------------------------
    Total      24      24       5       5       5       0
   -------------------------------------------------------

  ==> Integral Setup <==


 ParallelDFJK
 (Q|MN) takes up  0.00050 GB out of  0.08731 GB
 You need     0.01 nodes to fit (Q|MN) on parallel machine
  P0 shell_start: 0 shell_end: 42 function_start: 0 function_end: 116
 About to compute Auv
 JRMS: 2.01681250
 (Q|MN) takes  0.09121 s.
 Computing DFJK using 1 Processes and 1 threads  Minimum eigenvalue in the overlap matrix is 1.1140752545E-02.
  Using Symmetric Orthogonalization.
  SCF Guess: Superposition of Atomic Densities via on-the-fly atomic UHF.

  ==> Iterations <==

                        Total Energy        Delta E     RMS |[F,P]|


 computing J takes  0.00107 s.
 computing K takes  0.00142 s.   @DF-RHF iter   0:   -76.40541783604931   -7.64054e+01   2.73649e-01 

 computing J takes  0.00099 s.
 computing K takes  0.00126 s.   @DF-RHF iter   1:   -75.11173595985755    1.29368e+00   3.16851e-02 

 computing J takes  0.00100 s.
 computing K takes  0.00124 s.   @DF-RHF iter   2:   -75.16138463912952   -4.96487e-02   1.17125e-02 DIIS

 computing J takes  0.00101 s.
 computing K takes  0.00123 s.   @DF-RHF iter   3:   -75.16881309047747   -7.42845e-03   1.40807e-03 DIIS

 computing J takes  0.00097 s.
 computing K takes  0.00120 s.   @DF-RHF iter   4:   -75.16901788971772   -2.04799e-04   1.73624e-04 DIIS

 computing J takes  0.00096 s.
 computing K takes  0.00119 s.   @DF-RHF iter   5:   -75.16902112299435   -3.23328e-06   2.93933e-05 DIIS

 computing J takes  0.00097 s.
 computing K takes  0.00120 s.   @DF-RHF iter   6:   -75.16902129843180   -1.75437e-07   5.91695e-06 DIIS

 computing J takes  0.00097 s.
 computing K takes  0.00117 s.   @DF-RHF iter   7:   -75.16902130716541   -8.73361e-09   5.70307e-07 DIIS

  ==> Post-Iterations <==

    Orbital Energies (a.u.)
    -----------------------

    Doubly Occupied:                                                      

       1A1   -20.494475     2A1    -1.632243     1B2    -0.979919  
       3A1    -0.635085     1B1    -0.545444  

    Virtual:                                                              

       4A1     0.227498     2B2     0.279649     5A1     1.017108  
       2B1     1.057167     3B2     1.092427     4B2     1.371262  
       6A1     1.401825     7A1     1.529626     1A2     1.633533  
       8A1     2.022841     3B1     2.036007     5B2     2.444966  
       6B2     3.440698     9A1     3.488352     4B1     3.625412  
       2A2     3.816462    10A1     3.940330     7B2     5.303166  
      11A1     5.936420  

    Final Occupation by Irrep:
             A1    A2    B1    B2 
    DOCC [     3,    0,    1,    1 ]

  Energy converged.

  @DF-RHF Final Energy:   -75.16902130716541

   => Energetics <=

    Nuclear Repulsion Energy =             15.3888938780426194
    One-Electron Energy =                -132.5414922950253640
    Two-Electron Energy =                  41.9835771098173183
    DFT Exchange-Correlation Energy =       0.0000000000000000
    Empirical Dispersion Energy =           0.0000000000000000
    PCM Polarization Energy =               0.0000000000000000
    EFP Energy =                            0.0000000000000000
    Total Energy =                        -75.1690213071654227

    Alert: EFP and PCM quantities not currently incorporated into SCF psivars.
  Saving occupied orbitals to File 180.

*** tstop() called on master at Thu Sep  1 16:14:30 2016
Module time:
	user time   =       0.51 seconds =       0.01 minutes
	system time =       0.01 seconds =       0.00 minutes
	total time  =          1 seconds =       0.02 minutes
Total time:
	user time   =       0.51 seconds =       0.01 minutes
	system time =       0.01 seconds =       0.00 minutes
	total time  =          1 seconds =       0.02 minutes


Properties will be evaluated at   0.000000,   0.000000,   0.000000 Bohr

Properties computed using the SCF density matrix

  Nuclear Dipole Moment: (a.u.)
     X:     0.0000      Y:     0.0000      Z:    -0.5625

  Electronic Dipole Moment: (a.u.)
     X:     0.0000      Y:     0.0000      Z:    -0.0785

  Dipole Moment: (a.u.)
     X:     0.0000      Y:     0.0000      Z:    -0.6411     Total:     0.6411

  Dipole Moment: (Debye)
     X:     0.0000      Y:     0.0000      Z:    -1.6294     Total:     1.6294

	ParallelDF Success................................................PASSED

*** Psi4 exiting successfully. Buy a developer a beer!
